 Q-Chem 5.4 (devel), Q-Chem, Inc., Pleasanton, CA (2021)
 Q-Chem 5.4.2 for Intel X86 EM64T Linux

User input:
--------------------------------------------------------------
$molecule
0 1
  C   -3.3305062    1.6093068    0.0258616
  C   -1.9648067    1.8239469    0.0055946
  C   -3.6671402    0.2728283    0.0416780
  C   -1.2341776    0.6553690    0.0057286
  C   -4.3336794    2.6436185    0.0307373
  C   -1.3278304    3.1163474   -0.0137599
 Se   -2.2432167   -0.8542802    0.0325140
  N   -5.1545387    3.4594935    0.0349828
  N   -0.7983111    4.1452426   -0.0294525
  H   -4.6904819   -0.0771503    0.0583164
  H   -0.1529448    0.6366521   -0.0085568
$end
$rem
JOBTYPE               OPT
method                wB97X-D
BASIS                 def2-tzvpp
ECP                   def2-ecp
GEN_SCFMAN            TRUE
MAX_SCF_CYCLES        200
SYMMETRY              FALSE
SYM_IGNORE            TRUE
MEM_TOTAL             8000
MEM_STATIC            2000
THRESH                14
SCF_CONVERGENCE       8
scf_print_frgm        true
scf_algorithm         gdm
$end
--------------------------------------------------------------

   18   -2740.8901105339      3.80e-09  Convergence criterion met
 Total energy in the final basis set =    -2740.8901105339
   18   -2740.8949998625      1.82e-09  Convergence criterion met
 Total energy in the final basis set =    -2740.8949998625
   17   -2740.8954414265      1.63e-09  Convergence criterion met
 Total energy in the final basis set =    -2740.8954414265
   15   -2740.8955081953      7.75e-09  Convergence criterion met
 Total energy in the final basis set =    -2740.8955081953
   13   -2740.8955102757      9.15e-09  Convergence criterion met
 Total energy in the final basis set =    -2740.8955102757

             Standard Nuclear Orientation (Angstroms)
    I     Atom           X                Y                Z
 ----------------------------------------------------------------
    1      C      -3.3571785957     1.5891264770     0.0266821965
    2      C      -1.9353768318     1.8133075501     0.0061203721
    3      C      -3.7153520751     0.2775616553     0.0421008790
    4      C      -1.1906757251     0.6759510626     0.0059312677
    5      C      -4.3150898797     2.6467796294     0.0308059343
    6      C      -1.3470526399     3.1131321307    -0.0137502842
    7      Se     -2.2454286623    -0.8356213482     0.0309646234
    8      N      -5.0980760528     3.4864989599     0.0343112338
    9      N      -0.8571935447     4.1513750920    -0.0300318871
   10      H      -4.7213713089    -0.1075445736     0.0586306368
   11      H      -0.1148383839     0.6208079647    -0.0081208723
 ----------------------------------------------------------------

   15   -2740.8955118391      1.43e-09  Convergence criterion met
 Total energy in the final basis set =    -2740.8955118391
 Final energy is   -2740.8955118391282
 **  OPTIMIZATION CONVERGED  **

                    Orbital Energies (a.u.)
 --------------------------------------------------------------

 Alpha MOs
 -- Occupied --
******** -58.3212 -52.3495 -52.3480 -52.3473 -14.4512 -14.4511 -10.3732
-10.3728 -10.3701 -10.3700 -10.3419 -10.3419  -8.0107  -5.9471  -5.9425
 -5.9394  -2.2894  -2.2889  -2.2855  -2.2820  -2.2817  -1.0469  -1.0266
 -1.0132  -0.8990  -0.8941  -0.7453  -0.7351  -0.7050  -0.5915  -0.5713
 -0.5432  -0.5189  -0.4871  -0.4710  -0.4693  -0.4628  -0.4515  -0.4425
 -0.4381  -0.3663  -0.3605

          Ground-State Mulliken Net Atomic Charges

     Atom                 Charge (a.u.)
  ----------------------------------------
      1 C                     0.057501
      2 C                     0.058332
      3 C                    -0.171176
      4 C                    -0.172455
      5 C                    -0.206772
      6 C                    -0.207032
      7 Se                    0.308878
      8 N                     0.031646
      9 N                     0.031866
     10 H                     0.134161
     11 H                     0.135052
  ----------------------------------------
  Sum of atomic charges =     0.000000

                    Cartesian Multipole Moments
 -----------------------------------------------------------------
    Charge (ESU x 10^10)
                 0.0000
    Dipole Moment (Debye)
         X       1.1130      Y      -7.1044      Z       0.0451
       Tot       7.1912
    Quadrupole Moments (Debye-Ang)
        XX     -71.8053     XY      21.2163     YY     -93.3327
        XZ      -0.0681     YZ       0.0132     ZZ     -63.5821

 Total job time:  992.58s(wall), 26491.31s(cpu)
        *  Thank you very much for using Q-Chem.  Have a nice day.  *
